ITEM: TIMESTEP
0
ITEM: NUMBER OF ATOMS
25
ITEM: BOX BOUNDS pp pp pp
0 5e-05
0 5e-05
-5e-06 5e-06
ITEM: ATOMS id x y z vx vy vz fx fy fz 
1 0 0 0 -4.70939e-07 -1.13119e-06 0 0 0 0 
2 1e-05 0 0 2.60588e-06 -1.8097e-06 0 0 0 0 
3 2e-05 0 0 -1.26695e-06 1.81585e-06 0 0 0 0 
4 3e-05 0 0 2.18502e-06 3.41805e-06 0 0 0 0 
5 4e-05 0 0 2.27477e-06 -3.73516e-07 0 0 0 0 
6 0 1e-05 0 -2.7781e-06 -2.82152e-06 0 0 0 0 
7 1e-05 1e-05 0 3.30049e-06 1.21883e-06 0 0 0 0 
8 2e-05 1e-05 0 -2.21004e-06 3.35169e-06 0 0 0 0 
9 3e-05 1e-05 0 -3.56765e-06 -2.18733e-06 0 0 0 0 
10 4e-05 1e-05 0 -8.73604e-07 1.21183e-06 0 0 0 0 
11 0 2e-05 0 1.57038e-06 -1.68217e-06 0 0 0 0 
12 1e-05 2e-05 0 1.05033e-06 -5.65897e-07 0 0 0 0 
13 2e-05 2e-05 0 -1.36466e-07 -1.46786e-06 0 0 0 0 
14 3e-05 2e-05 0 1.83302e-06 2.24187e-06 0 0 0 0 
15 4e-05 2e-05 0 -1.83607e-06 1.67368e-06 0 0 0 0 
16 0 3e-05 0 1.95993e-06 -2.69151e-06 0 0 0 0 
17 1e-05 3e-05 0 1.38934e-06 -3.79368e-06 0 0 0 0 
18 2e-05 3e-05 0 -1.00176e-06 1.02759e-06 0 0 0 0 
19 3e-05 3e-05 0 2.22491e-06 9.36949e-07 0 0 0 0 
20 4e-05 3e-05 0 1.63465e-06 1.63296e-06 0 0 0 0 
21 0 4e-05 0 -4.11688e-06 -5.33876e-07 0 0 0 0 
22 1e-05 4e-05 0 -1.88703e-06 3.55969e-07 0 0 0 0 
23 2e-05 4e-05 0 -3.33819e-07 -7.15383e-07 0 0 0 0 
24 3e-05 4e-05 0 9.30647e-07 -8.99675e-07 0 0 0 0 
25 4e-05 4e-05 0 -2.48008e-06 1.78805e-06 0 0 0 0 
ITEM: TIMESTEP
1000
ITEM: NUMBER OF ATOMS
25
ITEM: BOX BOUNDS pp pp pp
0 5e-05
0 5e-05
-5e-06 5e-06
ITEM: ATOMS id x y z vx vy vz fx fy fz 
1 -4.70939e-09 -1.13119e-08 0 -4.70938e-07 -1.13119e-06 0 0 0 0 
2 1.00261e-05 -1.8097e-08 0 2.60588e-06 -1.8097e-06 0 0 0 0 
3 1.99873e-05 1.81585e-08 0 -1.26695e-06 1.81584e-06 0 0 0 0 
4 3.00219e-05 3.41805e-08 0 2.18501e-06 3.41804e-06 0 0 0 0 
5 4.00227e-05 -3.73516e-09 0 2.27477e-06 -3.73515e-07 0 0 0 0 
6 -2.7781e-08 9.97178e-06 0 -2.77809e-06 -2.82152e-06 0 0 0 0 
7 1.0033e-05 1.00122e-05 0 3.30048e-06 1.21883e-06 0 0 0 0 
8 1.99779e-05 1.00335e-05 0 -2.21003e-06 3.35168e-06 0 0 0 0 
9 2.99643e-05 9.97813e-06 0 -3.56765e-06 -2.18733e-06 0 0 0 0 
10 3.99913e-05 1.00121e-05 0 -8.73603e-07 1.21183e-06 0 0 0 0 
11 1.57038e-08 1.99832e-05 0 1.57037e-06 -1.68217e-06 0 0 0 0 
12 1.00105e-05 1.99943e-05 0 1.05033e-06 -5.65896e-07 0 0 0 0 
13 1.99986e-05 1.99853e-05 0 -1.36466e-07 -1.46786e-06 0 0 0 0 
14 3.00183e-05 2.00224e-05 0 1.83302e-06 2.24186e-06 0 0 0 0 
15 3.99816e-05 2.00167e-05 0 -1.83607e-06 1.67367e-06 0 0 0 0 
16 1.95993e-08 2.99731e-05 0 1.95993e-06 -2.6915e-06 0 0 0 0 
17 1.00139e-05 2.99621e-05 0 1.38934e-06 -3.79367e-06 0 0 0 0 
18 1.999e-05 3.00103e-05 0 -1.00176e-06 1.02759e-06 0 0 0 0 
19 3.00222e-05 3.00094e-05 0 2.22491e-06 9.36948e-07 0 0 0 0 
20 4.00163e-05 3.00163e-05 0 1.63464e-06 1.63295e-06 0 0 0 0 
21 -4.11687e-08 3.99947e-05 0 -4.11687e-06 -5.33875e-07 0 0 0 0 
22 9.98113e-06 4.00036e-05 0 -1.88702e-06 3.55968e-07 0 0 0 0 
23 1.99967e-05 3.99928e-05 0 -3.33819e-07 -7.15382e-07 0 0 0 0 
24 3.00093e-05 3.9991e-05 0 9.30645e-07 -8.99673e-07 0 0 0 0 
25 3.99752e-05 4.00179e-05 0 -2.48007e-06 1.78805e-06 0 0 0 0 
ITEM: TIMESTEP
2000
ITEM: NUMBER OF ATOMS
25
ITEM: BOX BOUNDS pp pp pp
0 5e-05
0 5e-05
-5e-06 5e-06
ITEM: ATOMS id x y z vx vy vz fx fy fz 
1 -9.41875e-09 -2.26238e-08 0 -4.70933e-07 -1.13118e-06 0 0 0 0 
2 1.00521e-05 -3.61939e-08 0 2.60585e-06 -1.80968e-06 0 0 0 0 
3 1.99747e-05 3.63168e-08 0 -1.26693e-06 1.81582e-06 0 0 0 0 
4 3.00437e-05 6.83608e-08 0 2.18499e-06 3.418e-06 0 0 0 0 
5 4.00455e-05 -7.47029e-09 0 2.27474e-06 -3.73511e-07 0 0 0 0 
6 -5.55618e-08 9.94357e-06 0 -2.77806e-06 -2.82148e-06 0 0 0 0 
7 1.0066e-05 1.00244e-05 0 3.30045e-06 1.21882e-06 0 0 0 0 
8 1.99558e-05 1.0067e-05 0 -2.21001e-06 3.35165e-06 0 0 0 0 
9 2.99286e-05 9.95625e-06 0 -3.5676e-06 -2.18731e-06 0 0 0 0 
10 3.99825e-05 1.00242e-05 0 -8.73593e-07 1.21182e-06 0 0 0 0 
11 3.14074e-08 1.99664e-05 0 1.57036e-06 -1.68215e-06 0 0 0 0 
12 1.0021e-05 1.99887e-05 0 1.05032e-06 -5.6589e-07 0 0 0 0 
13 1.99973e-05 1.99706e-05 0 -1.36464e-07 -1.46784e-06 0 0 0 0 
14 3.00367e-05 2.00448e-05 0 1.833e-06 2.24184e-06 0 0 0 0 
15 3.99633e-05 2.00335e-05 0 -1.83604e-06 1.67366e-06 0 0 0 0 
16 3.91985e-08 2.99462e-05 0 1.9599e-06 -2.69147e-06 0 0 0 0 
17 1.00278e-05 2.99241e-05 0 1.38932e-06 -3.79363e-06 0 0 0 0 
18 1.998e-05 3.00206e-05 0 -1.00175e-06 1.02758e-06 0 0 0 0 
19 3.00445e-05 3.00187e-05 0 2.22488e-06 9.36937e-07 0 0 0 0 
20 4.00327e-05 3.00327e-05 0 1.63462e-06 1.63294e-06 0 0 0 0 
21 -8.23372e-08 3.99893e-05 0 -4.11682e-06 -5.33869e-07 0 0 0 0 
22 9.96226e-06 4.00071e-05 0 -1.887e-06 3.55964e-07 0 0 0 0 
23 1.99933e-05 3.99857e-05 0 -3.33815e-07 -7.15374e-07 0 0 0 0 
24 3.00186e-05 3.9982e-05 0 9.30635e-07 -8.99663e-07 0 0 0 0 
25 3.99504e-05 4.00358e-05 0 -2.48005e-06 1.78803e-06 0 0 0 0 
ITEM: TIMESTEP
3000
ITEM: NUMBER OF ATOMS
25
ITEM: BOX BOUNDS pp pp pp
0 5e-05
0 5e-05
-5e-06 5e-06
ITEM: ATOMS id x y z vx vy vz fx fy fz 
1 -1.4128e-08 -3.39354e-08 0 -4.70918e-07 -1.13114e-06 0 0 0 0 
2 1.00782e-05 -5.42904e-08 0 2.60577e-06 -1.80962e-06 0 0 0 0 
3 1.9962e-05 5.44748e-08 0 -1.26689e-06 1.81576e-06 0 0 0 0 
4 3.00655e-05 1.0254e-07 0 2.18492e-06 3.4179e-06 0 0 0 0 
5 4.00682e-05 -1.12054e-08 0 2.27467e-06 -3.73499e-07 0 0 0 0 
6 -8.3342e-08 9.91536e-06 0 -2.77797e-06 -2.82139e-06 0 0 0 0 
7 1.0099e-05 1.00366e-05 0 3.30034e-06 1.21878e-06 0 0 0 0 
8 1.99337e-05 1.01005e-05 0 -2.20994e-06 3.35154e-06 0 0 0 0 
9 2.9893e-05 9.93438e-06 0 -3.56749e-06 -2.18724e-06 0 0 0 0 
10 3.99738e-05 1.00364e-05 0 -8.73565e-07 1.21178e-06 0 0 0 0 
11 4.71108e-08 1.99495e-05 0 1.57031e-06 -1.6821e-06 0 0 0 0 
12 1.00315e-05 1.9983e-05 0 1.05028e-06 -5.65872e-07 0 0 0 0 
13 1.99959e-05 1.9956e-05 0 -1.3646e-07 -1.4678e-06 0 0 0 0 
14 3.0055e-05 2.00673e-05 0 1.83294e-06 2.24177e-06 0 0 0 0 
15 3.99449e-05 2.00502e-05 0 -1.83599e-06 1.6736e-06 0 0 0 0 
16 5.87973e-08 2.99193e-05 0 1.95984e-06 -2.69139e-06 0 0 0 0 
17 1.00417e-05 2.98862e-05 0 1.38928e-06 -3.79351e-06 0 0 0 0 
18 1.99699e-05 3.00308e-05 0 -1.00171e-06 1.02755e-06 0 0 0 0 
19 3.00667e-05 3.00281e-05 0 2.22481e-06 9.36907e-07 0 0 0 0 
20 4.0049e-05 3.0049e-05 0 1.63457e-06 1.63288e-06 0 0 0 0 
21 -1.23505e-07 3.9984e-05 0 -4.11669e-06 -5.33852e-07 0 0 0 0 
22 9.94339e-06 4.00107e-05 0 -1.88694e-06 3.55953e-07 0 0 0 0 
23 1.999e-05 3.99785e-05 0 -3.33804e-07 -7.15351e-07 0 0 0 0 
24 3.00279e-05 3.9973e-05 0 9.30605e-07 -8.99634e-07 0 0 0 0 
25 3.99256e-05 4.00536e-05 0 -2.47997e-06 1.78797e-06 0 0 0 0 
ITEM: TIMESTEP
4000
ITEM: NUMBER OF ATOMS
25
ITEM: BOX BOUNDS pp pp pp
0 5e-05
0 5e-05
-5e-06 5e-06
ITEM: ATOMS id x y z vx vy vz fx fy fz 
1 -1.88371e-08 -4.52465e-08 0 -4.70889e-07 -1.13107e-06 0 0 0 0 
2 1.01042e-05 -7.23861e-08 0 2.60561e-06 -1.80951e-06 0 0 0 0 
3 1.99493e-05 7.26319e-08 0 -1.26682e-06 1.81565e-06 0 0 0 0 
4 3.00874e-05 1.36718e-07 0 2.18478e-06 3.41768e-06 0 0 0 0 
5 4.0091e-05 -1.49402e-08 0 2.27453e-06 -3.73476e-07 0 0 0 0 
6 -1.11121e-07 9.88714e-06 0 -2.7778e-06 -2.82122e-06 0 0 0 0 
7 1.0132e-05 1.00488e-05 0 3.30014e-06 1.2187e-06 0 0 0 0 
8 1.99116e-05 1.01341e-05 0 -2.2098e-06 3.35133e-06 0 0 0 0 
9 2.98573e-05 9.91251e-06 0 -3.56727e-06 -2.1871e-06 0 0 0 0 
10 3.99651e-05 1.00485e-05 0 -8.73511e-07 1.2117e-06 0 0 0 0 
11 6.28134e-08 1.99327e-05 0 1.57021e-06 -1.682e-06 0 0 0 0 
12 1.0042e-05 1.99774e-05 0 1.05022e-06 -5.65837e-07 0 0 0 0 
13 1.99945e-05 1.99413e-05 0 -1.36452e-07 -1.46771e-06 0 0 0 0 
14 3.00733e-05 2.00897e-05 0 1.83283e-06 2.24163e-06 0 0 0 0 
15 3.99266e-05 2.00669e-05 0 -1.83587e-06 1.6735e-06 0 0 0 0 
16 7.83951e-08 2.98923e-05 0 1.95972e-06 -2.69122e-06 0 0 0 0 
17 1.00556e-05 2.98483e-05 0 1.38919e-06 -3.79327e-06 0 0 0 0 
18 1.99599e-05 3.00411e-05 0 -1.00165e-06 1.02748e-06 0 0 0 0 
19 3.0089e-05 3.00375e-05 0 2.22468e-06 9.36849e-07 0 0 0 0 
20 4.00654e-05 3.00653e-05 0 1.63447e-06 1.63278e-06 0 0 0 0 
21 -1.64671e-07 3.99786e-05 0 -4.11644e-06 -5.33819e-07 0 0 0 0 
22 9.92452e-06 4.00142e-05 0 -1.88683e-06 3.55931e-07 0 0 0 0 
23 1.99866e-05 3.99714e-05 0 -3.33784e-07 -7.15307e-07 0 0 0 0 
24 3.00372e-05 3.9964e-05 0 9.30548e-07 -8.99579e-07 0 0 0 0 
25 3.99008e-05 4.00715e-05 0 -2.47981e-06 1.78786e-06 0 0 0 0 
ITEM: TIMESTEP
5000
ITEM: NUMBER OF ATOMS
25
ITEM: BOX BOUNDS pp pp pp
0 5e-05
0 5e-05
-5e-06 5e-06
ITEM: ATOMS id x y z vx vy vz fx fy fz 
1 -2.35457e-08 -5.65567e-08 0 -4.7084e-07 -1.13096e-06 0 0 0 0 
2 1.01303e-05 -9.04803e-08 0 2.60534e-06 -1.80932e-06 0 0 0 0 
3 1.99367e-05 9.07876e-08 0 -1.26669e-06 1.81547e-06 0 0 0 0 
4 3.01092e-05 1.70894e-07 0 2.18456e-06 3.41733e-06 0 0 0 0 
5 4.01137e-05 -1.86748e-08 0 2.2743e-06 -3.73438e-07 0 0 0 0 
6 -1.38898e-07 9.85893e-06 0 -2.77752e-06 -2.82093e-06 0 0 0 0 
7 1.0165e-05 1.00609e-05 0 3.2998e-06 1.21858e-06 0 0 0 0 
8 1.98895e-05 1.01676e-05 0 -2.20957e-06 3.35099e-06 0 0 0 0 
9 2.98216e-05 9.89064e-06 0 -3.5669e-06 -2.18688e-06 0 0 0 0 
10 3.99563e-05 1.00606e-05 0 -8.73421e-07 1.21158e-06 0 0 0 0 
11 7.85148e-08 1.99159e-05 0 1.57005e-06 -1.68182e-06 0 0 0 0 
12 1.00525e-05 1.99717e-05 0 1.05011e-06 -5.65779e-07 0 0 0 0 
13 1.99932e-05 1.99266e-05 0 -1.36438e-07 -1.46755e-06 0 0 0 0 
14 3.00916e-05 2.01121e-05 0 1.83264e-06 2.2414e-06 0 0 0 0 
15 3.99082e-05 2.00837e-05 0 -1.83568e-06 1.67333e-06 0 0 0 0 
16 9.79914e-08 2.98654e-05 0 1.95952e-06 -2.69094e-06 0 0 0 0 
17 1.00695e-05 2.98103e-05 0 1.38905e-06 -3.79288e-06 0 0 0 0 
18 1.99499e-05 3.00514e-05 0 -1.00155e-06 1.02738e-06 0 0 0 0 
19 3.01112e-05 3.00468e-05 0 2.22445e-06 9.36753e-07 0 0 0 0 
20 4.00817e-05 3.00816e-05 0 1.6343e-06 1.63261e-06 0 0 0 0 
21 -2.05833e-07 3.99733e-05 0 -4.11601e-06 -5.33764e-07 0 0 0 0 
22 9.90565e-06 4.00178e-05 0 -1.88663e-06 3.55894e-07 0 0 0 0 
23 1.99833e-05 3.99642e-05 0 -3.33749e-07 -7.15233e-07 0 0 0 0 
24 3.00465e-05 3.9955e-05 0 9.30452e-07 -8.99486e-07 0 0 0 0 
25 3.9876e-05 4.00894e-05 0 -2.47956e-06 1.78768e-06 0 0 0 0 
ITEM: TIMESTEP
6000
ITEM: NUMBER OF ATOMS
25
ITEM: BOX BOUNDS pp pp pp
0 5e-05
0 5e-05
-5e-06 5e-06
ITEM: ATOMS id x y z vx vy vz fx fy fz 
1 -2.82538e-08 -6.78655e-08 0 -4.70767e-07 -1.13078e-06 0 0 0 0 
2 1.01563e-05 -1.08572e-07 0 2.60493e-06 -1.80904e-06 0 0 0 0 
3 1.9924e-05 1.08941e-07 0 -1.26649e-06 1.81518e-06 0 0 0 0 
4 3.01311e-05 2.05064e-07 0 2.18422e-06 3.4168e-06 0 0 0 0 
5 4.01365e-05 -2.24089e-08 0 2.27394e-06 -3.7338e-07 0 0 0 0 
6 -1.66671e-07 9.83072e-06 0 -2.77708e-06 -2.82049e-06 0 0 0 0 
7 1.0198e-05 1.00731e-05 0 3.29928e-06 1.21839e-06 0 0 0 0 
8 1.98674e-05 1.02011e-05 0 -2.20923e-06 3.35047e-06 0 0 0 0 
9 2.9786e-05 9.86877e-06 0 -3.56635e-06 -2.18654e-06 0 0 0 0 
10 3.99476e-05 1.00727e-05 0 -8.73285e-07 1.21139e-06 0 0 0 0 
11 9.42141e-08 1.98991e-05 0 1.5698e-06 -1.68156e-06 0 0 0 0 
12 1.0063e-05 1.9966e-05 0 1.04995e-06 -5.65691e-07 0 0 0 0 
13 1.99918e-05 1.99119e-05 0 -1.36416e-07 -1.46733e-06 0 0 0 0 
14 3.011e-05 2.01345e-05 0 1.83235e-06 2.24105e-06 0 0 0 0 
15 3.98898e-05 2.01004e-05 0 -1.8354e-06 1.67307e-06 0 0 0 0 
16 1.17585e-07 2.98385e-05 0 1.95921e-06 -2.69053e-06 0 0 0 0 
17 1.00834e-05 2.97724e-05 0 1.38884e-06 -3.79229e-06 0 0 0 0 
18 1.99399e-05 3.00616e-05 0 -1.00139e-06 1.02722e-06 0 0 0 0 
19 3.01335e-05 3.00562e-05 0 2.2241e-06 9.36607e-07 0 0 0 0 
20 4.00981e-05 3.0098e-05 0 1.63405e-06 1.63236e-06 0 0 0 0 
21 -2.4699e-07 3.9968e-05 0 -4.11537e-06 -5.33681e-07 0 0 0 0 
22 9.88679e-06 4.00214e-05 0 -1.88634e-06 3.55839e-07 0 0 0 0 
23 1.998e-05 3.99571e-05 0 -3.33697e-07 -7.15122e-07 0 0 0 0 
24 3.00558e-05 3.9946e-05 0 9.30307e-07 -8.99346e-07 0 0 0 0 
25 3.98512e-05 4.01073e-05 0 -2.47917e-06 1.7874e-06 0 0 0 0 
ITEM: TIMESTEP
7000
ITEM: NUMBER OF ATOMS
25
ITEM: BOX BOUNDS pp pp pp
0 5e-05
0 5e-05
-5e-06 5e-06
ITEM: ATOMS id x y z vx vy vz fx fy fz 
1 -3.2961e-08 -7.91721e-08 0 -4.70663e-07 -1.13053e-06 0 0 0 0 
2 1.01824e-05 -1.26661e-07 0 2.60436e-06 -1.80864e-06 0 0 0 0 
3 1.99113e-05 1.27091e-07 0 -1.26621e-06 1.81478e-06 0 0 0 0 
4 3.01529e-05 2.39229e-07 0 2.18374e-06 3.41605e-06 0 0 0 0 
5 4.01592e-05 -2.61423e-08 0 2.27344e-06 -3.73297e-07 0 0 0 0 
6 -1.94439e-07 9.80252e-06 0 -2.77647e-06 -2.81987e-06 0 0 0 0 
7 1.0231e-05 1.00853e-05 0 3.29856e-06 1.21812e-06 0 0 0 0 
8 1.98453e-05 1.02346e-05 0 -2.20874e-06 3.34973e-06 0 0 0 0 
9 2.97503e-05 9.84691e-06 0 -3.56556e-06 -2.18605e-06 0 0 0 0 
10 3.99389e-05 1.00848e-05 0 -8.73093e-07 1.21112e-06 0 0 0 0 
11 1.0991e-07 1.98823e-05 0 1.56946e-06 -1.68119e-06 0 0 0 0 
12 1.00735e-05 1.99604e-05 0 1.04972e-06 -5.65566e-07 0 0 0 0 
13 1.99904e-05 1.98973e-05 0 -1.36386e-07 -1.467e-06 0 0 0 0 
14 3.01283e-05 2.01569e-05 0 1.83195e-06 2.24056e-06 0 0 0 0 
15 3.98715e-05 2.01171e-05 0 -1.83499e-06 1.6727e-06 0 0 0 0 
16 1.37175e-07 2.98116e-05 0 1.95878e-06 -2.68993e-06 0 0 0 0 
17 1.00972e-05 2.97345e-05 0 1.38853e-06 -3.79146e-06 0 0 0 0 
18 1.99299e-05 3.00719e-05 0 -1.00117e-06 1.02699e-06 0 0 0 0 
19 3.01557e-05 3.00656e-05 0 2.22361e-06 9.36401e-07 0 0 0 0 
20 4.01144e-05 3.01143e-05 0 1.63369e-06 1.632e-06 0 0 0 0 
21 -2.8814e-07 3.99626e-05 0 -4.11447e-06 -5.33563e-07 0 0 0 0 
22 9.86793e-06 4.00249e-05 0 -1.88592e-06 3.5576e-07 0 0 0 0 
23 1.99766e-05 3.99499e-05 0 -3.33624e-07 -7.14964e-07 0 0 0 0 
24 3.00651e-05 3.9937e-05 0 9.30102e-07 -8.99148e-07 0 0 0 0 
25 3.98264e-05 4.01251e-05 0 -2.47863e-06 1.78701e-06 0 0 0 0 
ITEM: TIMESTEP
8000
ITEM: NUMBER OF ATOMS
25
ITEM: BOX BOUNDS pp pp pp
0 5e-05
0 5e-05
-5e-06 5e-06
ITEM: ATOMS id x y z vx vy vz fx fy fz 
1 -3.76669e-08 -9.04758e-08 0 -4.70522e-07 -1.13019e-06 0 0 0 0 
2 1.02084e-05 -1.44745e-07 0 2.60358e-06 -1.8081e-06 0 0 0 0 
3 1.98987e-05 1.45236e-07 0 -1.26583e-06 1.81424e-06 0 0 0 0 
4 3.01748e-05 2.73384e-07 0 2.18308e-06 3.41502e-06 0 0 0 0 
5 4.01819e-05 -2.98748e-08 0 2.27276e-06 -3.73185e-07 0 0 0 0 
6 -2.22199e-07 9.77433e-06 0 -2.77564e-06 -2.81902e-06 0 0 0 0 
7 1.0264e-05 1.00975e-05 0 3.29757e-06 1.21776e-06 0 0 0 0 
8 1.98232e-05 1.02681e-05 0 -2.20808e-06 3.34872e-06 0 0 0 0 
9 2.97146e-05 9.82505e-06 0 -3.56449e-06 -2.1854e-06 0 0 0 0 
10 3.99301e-05 1.00969e-05 0 -8.72831e-07 1.21076e-06 0 0 0 0 
11 1.25603e-07 1.98655e-05 0 1.56899e-06 -1.68069e-06 0 0 0 0 
12 1.0084e-05 1.99547e-05 0 1.0494e-06 -5.65397e-07 0 0 0 0 
13 1.99891e-05 1.98826e-05 0 -1.36345e-07 -1.46656e-06 0 0 0 0 
14 3.01466e-05 2.01793e-05 0 1.8314e-06 2.23988e-06 0 0 0 0 
15 3.98531e-05 2.01339e-05 0 -1.83444e-06 1.6722e-06 0 0 0 0 
16 1.5676e-07 2.97847e-05 0 1.9582e-06 -2.68913e-06 0 0 0 0 
17 1.01111e-05 2.96966e-05 0 1.38811e-06 -3.79032e-06 0 0 0 0 
18 1.99199e-05 3.00822e-05 0 -1.00087e-06 1.02668e-06 0 0 0 0 
19 3.0178e-05 3.00749e-05 0 2.22294e-06 9.3612e-07 0 0 0 0 
20 4.01307e-05 3.01306e-05 0 1.6332e-06 1.63151e-06 0 0 0 0 
21 -3.29278e-07 3.99573e-05 0 -4.11323e-06 -5.33403e-07 0 0 0 0 
22 9.84907e-06 4.00285e-05 0 -1.88536e-06 3.55654e-07 0 0 0 0 
23 1.99733e-05 3.99428e-05 0 -3.33524e-07 -7.1475e-07 0 0 0 0 
24 3.00744e-05 3.9928e-05 0 9.29823e-07 -8.98878e-07 0 0 0 0 
25 3.98016e-05 4.0143e-05 0 -2.47788e-06 1.78647e-06 0 0 0 0 
ITEM: TIMESTEP
9000
ITEM: NUMBER OF ATOMS
25
ITEM: BOX BOUNDS pp pp pp
0 5e-05
0 5e-05
-5e-06 5e-06
ITEM: ATOMS id x y z vx vy vz fx fy fz 
1 -4.23713e-08 -1.01776e-07 0 -4.70336e-07 -1.12975e-06 0 0 0 0 
2 1.02345e-05 -1.62822e-07 0 2.60255e-06 -1.80739e-06 0 0 0 0 
3 1.9886e-05 1.63375e-07 0 -1.26533e-06 1.81352e-06 0 0 0 0 
4 3.01966e-05 3.07528e-07 0 2.18222e-06 3.41368e-06 0 0 0 0 
5 4.02047e-05 -3.36059e-08 0 2.27186e-06 -3.73038e-07 0 0 0 0 
6 -2.49951e-07 9.74614e-06 0 -2.77454e-06 -2.81791e-06 0 0 0 0 
7 1.0297e-05 1.01097e-05 0 3.29627e-06 1.21728e-06 0 0 0 0 
8 1.98012e-05 1.03016e-05 0 -2.20721e-06 3.3474e-06 0 0 0 0 
9 2.9679e-05 9.8032e-06 0 -3.56309e-06 -2.18454e-06 0 0 0 0 
10 3.99214e-05 1.0109e-05 0 -8.72487e-07 1.21028e-06 0 0 0 0 
11 1.4129e-07 1.98487e-05 0 1.56837e-06 -1.68002e-06 0 0 0 0 
12 1.00945e-05 1.99491e-05 0 1.04899e-06 -5.65173e-07 0 0 0 0 
13 1.99877e-05 1.98679e-05 0 -1.36292e-07 -1.46598e-06 0 0 0 0 
14 3.01649e-05 2.02017e-05 0 1.83068e-06 2.239e-06 0 0 0 0 
15 3.98348e-05 2.01506e-05 0 -1.83372e-06 1.67154e-06 0 0 0 0 
16 1.76339e-07 2.97578e-05 0 1.95742e-06 -2.68806e-06 0 0 0 0 
17 1.0125e-05 2.96587e-05 0 1.38756e-06 -3.78883e-06 0 0 0 0 
18 1.99099e-05 3.00925e-05 0 -1.00048e-06 1.02628e-06 0 0 0 0 
19 3.02002e-05 3.00843e-05 0 2.22207e-06 9.3575e-07 0 0 0 0 
20 4.01471e-05 3.01469e-05 0 1.63255e-06 1.63087e-06 0 0 0 0 
21 -3.70403e-07 3.9952e-05 0 -4.11161e-06 -5.33193e-07 0 0 0 0 
22 9.83022e-06 4.0032e-05 0 -1.88461e-06 3.55513e-07 0 0 0 0 
23 1.997e-05 3.99356e-05 0 -3.33392e-07 -7.14468e-07 0 0 0 0 
24 3.00837e-05 3.99191e-05 0 9.29456e-07 -8.98524e-07 0 0 0 0 
25 3.97769e-05 4.01609e-05 0 -2.4769e-06 1.78576e-06 0 0 0 0 
ITEM: TIMESTEP
10000
ITEM: NUMBER OF ATOMS
25
ITEM: BOX BOUNDS pp pp pp
0 5e-05
0 5e-05
-5e-06 5e-06
ITEM: ATOMS id x y z vx vy vz fx fy fz 
1 -4.70735e-08 -1.1307e-07 0 -4.70097e-07 -1.12917e-06 0 0 0 0 
2 1.02605e-05 -1.80892e-07 0 2.60122e-06 -1.80646e-06 0 0 0 0 
3 1.98734e-05 1.81506e-07 0 -1.26469e-06 1.8126e-06 0 0 0 0 
4 3.02184e-05 3.41657e-07 0 2.18111e-06 3.41194e-06 0 0 0 0 
5 4.02274e-05 -3.73354e-08 0 2.27071e-06 -3.72848e-07 0 0 0 0 
6 -2.77689e-07 9.71797e-06 0 -2.77313e-06 -2.81647e-06 0 0 0 0 
7 1.03299e-05 1.01218e-05 0 3.29459e-06 1.21665e-06 0 0 0 0 
8 1.97791e-05 1.0335e-05 0 -2.20608e-06 3.3457e-06 0 0 0 0 
9 2.96434e-05 9.78136e-06 0 -3.56127e-06 -2.18342e-06 0 0 0 0 
10 3.99127e-05 1.01211e-05 0 -8.72042e-07 1.20967e-06 0 0 0 0 
11 1.5697e-07 1.98319e-05 0 1.56757e-06 -1.67917e-06 0 0 0 0 
12 1.0105e-05 1.99434e-05 0 1.04845e-06 -5.64885e-07 0 0 0 0 
13 1.99864e-05 1.98533e-05 0 -1.36222e-07 -1.46524e-06 0 0 0 0 
14 3.01832e-05 2.02241e-05 0 1.82974e-06 2.23786e-06 0 0 0 0 
15 3.98165e-05 2.01673e-05 0 -1.83278e-06 1.67068e-06 0 0 0 0 
16 1.95908e-07 2.9731e-05 0 1.95643e-06 -2.68669e-06 0 0 0 0 
17 1.01389e-05 2.96208e-05 0 1.38686e-06 -3.78689e-06 0 0 0 0 
18 1.98999e-05 3.01027e-05 0 -9.99968e-07 1.02575e-06 0 0 0 0 
19 3.02224e-05 3.00937e-05 0 2.22093e-06 9.35274e-07 0 0 0 0 
20 4.01634e-05 3.01632e-05 0 1.63172e-06 1.63004e-06 0 0 0 0 
21 -4.11509e-07 3.99466e-05 0 -4.10951e-06 -5.32921e-07 0 0 0 0 
22 9.81138e-06 4.00356e-05 0 -1.88365e-06 3.55332e-07 0 0 0 0 
23 1.99666e-05 3.99285e-05 0 -3.33222e-07 -7.14104e-07 0 0 0 0 
24 3.0093e-05 3.99101e-05 0 9.28983e-07 -8.98066e-07 0 0 0 0 
25 3.97521e-05 4.01787e-05 0 -2.47564e-06 1.78485e-06 0 0 0 0 
ITEM: TIMESTEP
11000
ITEM: NUMBER OF ATOMS
25
ITEM: BOX BOUNDS pp pp pp
0 5e-05
0 5e-05
-5e-06 5e-06
ITEM: ATOMS id x y z vx vy vz fx fy fz 
1 -5.1773e-08 -1.24358e-07 0 -4.69792e-07 -1.12844e-06 0 0 0 0 
2 1.02865e-05 -1.98951e-07 0 2.59954e-06 -1.80529e-06 0 0 0 0 
3 1.98607e-05 1.99626e-07 0 -1.26387e-06 1.81142e-06 0 0 0 0 
4 3.02402e-05 3.75765e-07 0 2.1797e-06 3.40973e-06 0 0 0 0 
5 4.02501e-05 -4.10627e-08 0 2.26923e-06 -3.72606e-07 0 0 0 0 
6 -3.05412e-07 9.68981e-06 0 -2.77133e-06 -2.81465e-06 0 0 0 0 
7 1.03628e-05 1.0134e-05 0 3.29245e-06 1.21587e-06 0 0 0 0 
8 1.9757e-05 1.03685e-05 0 -2.20465e-06 3.34353e-06 0 0 0 0 
9 2.96078e-05 9.75953e-06 0 -3.55896e-06 -2.18201e-06 0 0 0 0 
10 3.9904e-05 1.01332e-05 0 -8.71477e-07 1.20888e-06 0 0 0 0 
11 1.7264e-07 1.98151e-05 0 1.56655e-06 -1.67808e-06 0 0 0 0 
12 1.01155e-05 1.99378e-05 0 1.04777e-06 -5.64519e-07 0 0 0 0 
13 1.9985e-05 1.98386e-05 0 -1.36134e-07 -1.46429e-06 0 0 0 0 
14 3.02015e-05 2.02465e-05 0 1.82856e-06 2.23641e-06 0 0 0 0 
15 3.97982e-05 2.0184e-05 0 -1.8316e-06 1.6696e-06 0 0 0 0 
16 2.15466e-07 2.97041e-05 0 1.95516e-06 -2.68495e-06 0 0 0 0 
17 1.01527e-05 2.95829e-05 0 1.38596e-06 -3.78444e-06 0 0 0 0 
18 1.98899e-05 3.0113e-05 0 -9.9932e-07 1.02509e-06 0 0 0 0 
19 3.02446e-05 3.0103e-05 0 2.2195e-06 9.34667e-07 0 0 0 0 
20 4.01797e-05 3.01795e-05 0 1.63067e-06 1.62898e-06 0 0 0 0 
21 -4.52591e-07 3.99413e-05 0 -4.10685e-06 -5.32576e-07 0 0 0 0 
22 9.79255e-06 4.00391e-05 0 -1.88243e-06 3.55102e-07 0 0 0 0 
23 1.99633e-05 3.99214e-05 0 -3.33006e-07 -7.13641e-07 0 0 0 0 
24 3.01023e-05 3.99011e-05 0 9.28381e-07 -8.97484e-07 0 0 0 0 
25 3.97274e-05 4.01966e-05 0 -2.47404e-06 1.7837e-06 0 0 0 0 
ITEM: TIMESTEP
12000
ITEM: NUMBER OF ATOMS
25
ITEM: BOX BOUNDS pp pp pp
0 5e-05
0 5e-05
-5e-06 5e-06
ITEM: ATOMS id x y z vx vy vz fx fy fz 
1 -5.64691e-08 -1.35638e-07 0 -4.69409e-07 -1.12752e-06 0 0 0 0 
2 1.03125e-05 -2.16997e-07 0 2.59742e-06 -1.80382e-06 0 0 0 0 
3 1.98481e-05 2.17733e-07 0 -1.26284e-06 1.80995e-06 0 0 0 0 
4 3.0262e-05 4.09849e-07 0 2.17792e-06 3.40695e-06 0 0 0 0 
5 4.02728e-05 -4.47873e-08 0 2.26738e-06 -3.72303e-07 0 0 0 0 
6 -3.33114e-07 9.66168e-06 0 -2.76907e-06 -2.81235e-06 0 0 0 0 
7 1.03958e-05 1.01461e-05 0 3.28977e-06 1.21488e-06 0 0 0 0 
8 1.9735e-05 1.04019e-05 0 -2.20286e-06 3.3408e-06 0 0 0 0 
9 2.95722e-05 9.73772e-06 0 -3.55606e-06 -2.18023e-06 0 0 0 0 
10 3.98952e-05 1.01453e-05 0 -8.70767e-07 1.2079e-06 0 0 0 0 
11 1.883e-07 1.97983e-05 0 1.56528e-06 -1.67671e-06 0 0 0 0 
12 1.01259e-05 1.99321e-05 0 1.04692e-06 -5.64059e-07 0 0 0 0 
13 1.99836e-05 1.9824e-05 0 -1.36023e-07 -1.46309e-06 0 0 0 0 
14 3.02198e-05 2.02688e-05 0 1.82707e-06 2.23459e-06 0 0 0 0 
15 3.97798e-05 2.02007e-05 0 -1.8301e-06 1.66824e-06 0 0 0 0 
16 2.3501e-07 2.96773e-05 0 1.95356e-06 -2.68276e-06 0 0 0 0 
17 1.01666e-05 2.95451e-05 0 1.38483e-06 -3.78136e-06 0 0 0 0 
18 1.98799e-05 3.01232e-05 0 -9.98505e-07 1.02425e-06 0 0 0 0 
19 3.02668e-05 3.01123e-05 0 2.21769e-06 9.33906e-07 0 0 0 0 
20 4.0196e-05 3.01958e-05 0 1.62934e-06 1.62765e-06 0 0 0 0 
21 -4.93644e-07 3.9936e-05 0 -4.1035e-06 -5.32141e-07 0 0 0 0 
22 9.77373e-06 4.00427e-05 0 -1.8809e-06 3.54812e-07 0 0 0 0 
23 1.996e-05 3.99142e-05 0 -3.32735e-07 -7.13059e-07 0 0 0 0 
24 3.01116e-05 3.98921e-05 0 9.27624e-07 -8.96752e-07 0 0 0 0 
25 3.97026e-05 4.02144e-05 0 -2.47202e-06 1.78224e-06 0 0 0 0 
ITEM: TIMESTEP
13000
ITEM: NUMBER OF ATOMS
25
ITEM: BOX BOUNDS pp pp pp
0 5e-05
0 5e-05
-5e-06 5e-06
ITEM: ATOMS id x y z vx vy vz fx fy fz 
1 -6.11609e-08 -1.46908e-07 0 -4.68932e-07 -1.12637e-06 0 0 0 0 
2 1.03384e-05 -2.35026e-07 0 2.59478e-06 -1.80199e-06 0 0 0 0 
3 1.98355e-05 2.35824e-07 0 -1.26155e-06 1.80811e-06 0 0 0 0 
4 3.02838e-05 4.43902e-07 0 2.1757e-06 3.40348e-06 0 0 0 0 
5 4.02954e-05 -4.85085e-08 0 2.26508e-06 -3.71924e-07 0 0 0 0 
6 -3.60792e-07 9.63357e-06 0 -2.76626e-06 -2.80949e-06 0 0 0 0 
7 1.04286e-05 1.01583e-05 0 3.28642e-06 1.21364e-06 0 0 0 0 
8 1.9713e-05 1.04353e-05 0 -2.20062e-06 3.33741e-06 0 0 0 0 
9 2.95367e-05 9.71593e-06 0 -3.55245e-06 -2.17801e-06 0 0 0 0 
10 3.98865e-05 1.01574e-05 0 -8.69881e-07 1.20667e-06 0 0 0 0 
11 2.03945e-07 1.97815e-05 0 1.56368e-06 -1.67501e-06 0 0 0 0 
12 1.01364e-05 1.99265e-05 0 1.04585e-06 -5.63486e-07 0 0 0 0 
13 1.99823e-05 1.98094e-05 0 -1.35885e-07 -1.46161e-06 0 0 0 0 
14 3.02381e-05 2.02912e-05 0 1.82521e-06 2.23231e-06 0 0 0 0 
15 3.97615e-05 2.02174e-05 0 -1.82824e-06 1.66654e-06 0 0 0 0 
16 2.54536e-07 2.96505e-05 0 1.95158e-06 -2.68004e-06 0 0 0 0 
17 1.01804e-05 2.95073e-05 0 1.38342e-06 -3.77751e-06 0 0 0 0 
18 1.98699e-05 3.01335e-05 0 -9.9749e-07 1.02321e-06 0 0 0 0 
19 3.02889e-05 3.01217e-05 0 2.21543e-06 9.32956e-07 0 0 0 0 
20 4.02123e-05 3.02121e-05 0 1.62768e-06 1.626e-06 0 0 0 0 
21 -5.34659e-07 3.99307e-05 0 -4.09933e-06 -5.316e-07 0 0 0 0 
22 9.75493e-06 4.00462e-05 0 -1.87898e-06 3.54452e-07 0 0 0 0 
23 1.99566e-05 3.99071e-05 0 -3.32397e-07 -7.12334e-07 0 0 0 0 
24 3.01209e-05 3.98832e-05 0 9.26681e-07 -8.9584e-07 0 0 0 0 
25 3.96779e-05 4.02322e-05 0 -2.46951e-06 1.78043e-06 0 0 0 0 
ITEM: TIMESTEP
14000
ITEM: NUMBER OF ATOMS
25
ITEM: BOX BOUNDS pp pp pp
0 5e-05
0 5e-05
-5e-06 5e-06
ITEM: ATOMS id x y z vx vy vz fx fy fz 
1 -6.58473e-08 -1.58165e-07 0 -4.68341e-07 -1.12495e-06 0 0 0 0 
2 1.03644e-05 -2.53035e-07 0 2.59151e-06 -1.79972e-06 0 0 0 0 
3 1.98229e-05 2.53894e-07 0 -1.25996e-06 1.80583e-06 0 0 0 0 
4 3.03055e-05 4.77916e-07 0 2.17296e-06 3.3992e-06 0 0 0 0 
5 4.03181e-05 -5.22255e-08 0 2.26223e-06 -3.71456e-07 0 0 0 0 
6 -3.88437e-07 9.60549e-06 0 -2.76277e-06 -2.80596e-06 0 0 0 0 
7 1.04615e-05 1.01704e-05 0 3.28229e-06 1.21211e-06 0 0 0 0 
8 1.9691e-05 1.04686e-05 0 -2.19785e-06 3.3332e-06 0 0 0 0 
9 2.95012e-05 9.69416e-06 0 -3.54797e-06 -2.17527e-06 0 0 0 0 
10 3.98779e-05 1.01694e-05 0 -8.68786e-07 1.20515e-06 0 0 0 0 
11 2.19572e-07 1.97648e-05 0 1.56172e-06 -1.6729e-06 0 0 0 0 
12 1.01469e-05 1.99209e-05 0 1.04454e-06 -5.62776e-07 0 0 0 0 
13 1.99809e-05 1.97948e-05 0 -1.35713e-07 -1.45977e-06 0 0 0 0 
14 3.02563e-05 2.03135e-05 0 1.82291e-06 2.2295e-06 0 0 0 0 
15 3.97433e-05 2.0234e-05 0 -1.82594e-06 1.66445e-06 0 0 0 0 
16 2.7404e-07 2.96237e-05 0 1.94912e-06 -2.67666e-06 0 0 0 0 
17 1.01943e-05 2.94696e-05 0 1.38168e-06 -3.77275e-06 0 0 0 0 
18 1.98599e-05 3.01437e-05 0 -9.96234e-07 1.02192e-06 0 0 0 0 
19 3.03111e-05 3.0131e-05 0 2.21264e-06 9.31781e-07 0 0 0 0 
20 4.02286e-05 3.02283e-05 0 1.62563e-06 1.62395e-06 0 0 0 0 
21 -5.75627e-07 3.99254e-05 0 -4.09417e-06 -5.30931e-07 0 0 0 0 
22 9.73615e-06 4.00498e-05 0 -1.87662e-06 3.54005e-07 0 0 0 0 
23 1.99533e-05 3.99e-05 0 -3.31978e-07 -7.11437e-07 0 0 0 0 
24 3.01301e-05 3.98742e-05 0 9.25514e-07 -8.94712e-07 0 0 0 0 
25 3.96532e-05 4.025e-05 0 -2.4664e-06 1.77819e-06 0 0 0 0 
ITEM: TIMESTEP
15000
ITEM: NUMBER OF ATOMS
25
ITEM: BOX BOUNDS pp pp pp
0 5e-05
0 5e-05
-5e-06 5e-06
ITEM: ATOMS id x y z vx vy vz fx fy fz 
1 -7.05272e-08 -1.69406e-07 0 -4.67617e-07 -1.12321e-06 0 0 0 0 
2 1.03903e-05 -2.71019e-07 0 2.5875e-06 -1.79694e-06 0 0 0 0 
3 1.98103e-05 2.71939e-07 0 -1.25801e-06 1.80304e-06 0 0 0 0 
4 3.03272e-05 5.11883e-07 0 2.16961e-06 3.39394e-06 0 0 0 0 
5 4.03407e-05 -5.59373e-08 0 2.25873e-06 -3.70881e-07 0 0 0 0 
6 -4.16044e-07 9.57745e-06 0 -2.7585e-06 -2.80162e-06 0 0 0 0 
7 1.04943e-05 1.01825e-05 0 3.27721e-06 1.21024e-06 0 0 0 0 
8 1.9669e-05 1.05019e-05 0 -2.19445e-06 3.32805e-06 0 0 0 0 
9 2.94657e-05 9.67243e-06 0 -3.54249e-06 -2.17191e-06 0 0 0 0 
10 3.98692e-05 1.01815e-05 0 -8.67443e-07 1.20329e-06 0 0 0 0 
11 2.35178e-07 1.97481e-05 0 1.5593e-06 -1.67031e-06 0 0 0 0 
12 1.01573e-05 1.99153e-05 0 1.04292e-06 -5.61906e-07 0 0 0 0 
13 1.99796e-05 1.97802e-05 0 -1.35504e-07 -1.45751e-06 0 0 0 0 
14 3.02745e-05 2.03357e-05 0 1.82009e-06 2.22606e-06 0 0 0 0 
15 3.9725e-05 2.02506e-05 0 -1.82312e-06 1.66187e-06 0 0 0 0 
16 2.93517e-07 2.95969e-05 0 1.94611e-06 -2.67252e-06 0 0 0 0 
17 1.02081e-05 2.94319e-05 0 1.37954e-06 -3.76692e-06 0 0 0 0 
18 1.985e-05 3.01539e-05 0 -9.94694e-07 1.02034e-06 0 0 0 0 
19 3.03332e-05 3.01403e-05 0 2.20922e-06 9.30341e-07 0 0 0 0 
20 4.02448e-05 3.02445e-05 0 1.62312e-06 1.62144e-06 0 0 0 0 
21 -6.16538e-07 3.992e-05 0 -4.08784e-06 -5.3011e-07 0 0 0 0 
22 9.7174e-06 4.00533e-05 0 -1.87372e-06 3.53458e-07 0 0 0 0 
23 1.995e-05 3.98929e-05 0 -3.31465e-07 -7.10338e-07 0 0 0 0 
24 3.01394e-05 3.98653e-05 0 9.24083e-07 -8.93329e-07 0 0 0 0 
25 3.96286e-05 4.02678e-05 0 -2.46259e-06 1.77544e-06 0 0 0 0 
ITEM: TIMESTEP
16000
ITEM: NUMBER OF ATOMS
25
ITEM: BOX BOUNDS pp pp pp
0 5e-05
0 5e-05
-5e-06 5e-06
ITEM: ATOMS id x y z vx vy vz fx fy fz 
1 -7.51992e-08 -1.80628e-07 0 -4.66739e-07 -1.12111e-06 0 0 0 0 
2 1.04161e-05 -2.88972e-07 0 2.58264e-06 -1.79356e-06 0 0 0 0 
3 1.97977e-05 2.89953e-07 0 -1.25565e-06 1.79965e-06 0 0 0 0 
4 3.03489e-05 5.45791e-07 0 2.16553e-06 3.38757e-06 0 0 0 0 
5 4.03632e-05 -5.96427e-08 0 2.25449e-06 -3.70185e-07 0 0 0 0 
6 -4.43604e-07 9.54946e-06 0 -2.75332e-06 -2.79636e-06 0 0 0 0 
7 1.0527e-05 1.01946e-05 0 3.27106e-06 1.20796e-06 0 0 0 0 
8 1.96471e-05 1.05352e-05 0 -2.19033e-06 3.3218e-06 0 0 0 0 
9 2.94303e-05 9.65073e-06 0 -3.53583e-06 -2.16783e-06 0 0 0 0 
10 3.98605e-05 1.01935e-05 0 -8.65813e-07 1.20103e-06 0 0 0 0 
11 2.50756e-07 1.97314e-05 0 1.55637e-06 -1.66717e-06 0 0 0 0 
12 1.01677e-05 1.99096e-05 0 1.04096e-06 -5.60851e-07 0 0 0 0 
13 1.99782e-05 1.97656e-05 0 -1.35249e-07 -1.45477e-06 0 0 0 0 
14 3.02927e-05 2.0358e-05 0 1.81668e-06 2.22187e-06 0 0 0 0 
15 3.97068e-05 2.02673e-05 0 -1.81969e-06 1.65875e-06 0 0 0 0 
16 3.1296e-07 2.95702e-05 0 1.94245e-06 -2.6675e-06 0 0 0 0 
17 1.02218e-05 2.93942e-05 0 1.37695e-06 -3.75985e-06 0 0 0 0 
18 1.984e-05 3.01641e-05 0 -9.92825e-07 1.01843e-06 0 0 0 0 
19 3.03553e-05 3.01496e-05 0 2.20507e-06 9.28593e-07 0 0 0 0 
20 4.0261e-05 3.02607e-05 0 1.62007e-06 1.61839e-06 0 0 0 0 
21 -6.57379e-07 3.99148e-05 0 -4.08016e-06 -5.29114e-07 0 0 0 0 
22 9.69868e-06 4.00568e-05 0 -1.8702e-06 3.52794e-07 0 0 0 0 
23 1.99467e-05 3.98858e-05 0 -3.30842e-07 -7.09003e-07 0 0 0 0 
24 3.01486e-05 3.98563e-05 0 9.22347e-07 -8.91651e-07 0 0 0 0 
25 3.9604e-05 4.02855e-05 0 -2.45796e-06 1.77211e-06 0 0 0 0 
ITEM: TIMESTEP
17000
ITEM: NUMBER OF ATOMS
25
ITEM: BOX BOUNDS pp pp pp
0 5e-05
0 5e-05
-5e-06 5e-06
ITEM: ATOMS id x y z vx vy vz fx fy fz 
1 -7.98614e-08 -1.91827e-07 0 -4.65689e-07 -1.11858e-06 0 0 0 0 
2 1.04419e-05 -3.06888e-07 0 2.57683e-06 -1.78953e-06 0 0 0 0 
3 1.97852e-05 3.0793e-07 0 -1.25283e-06 1.7956e-06 0 0 0 0 
4 3.03705e-05 5.7963e-07 0 2.16066e-06 3.37994e-06 0 0 0 0 
5 4.03858e-05 -6.33405e-08 0 2.24941e-06 -3.69352e-07 0 0 0 0 
6 -4.71108e-07 9.52153e-06 0 -2.74713e-06 -2.79006e-06 0 0 0 0 
7 1.05597e-05 1.02067e-05 0 3.26369e-06 1.20525e-06 0 0 0 0 
8 1.96252e-05 1.05684e-05 0 -2.1854e-06 3.31432e-06 0 0 0 0 
9 2.9395e-05 9.62907e-06 0 -3.52788e-06 -2.16295e-06 0 0 0 0 
10 3.98519e-05 1.02055e-05 0 -8.63865e-07 1.19832e-06 0 0 0 0 
11 2.66303e-07 1.97147e-05 0 1.55287e-06 -1.66342e-06 0 0 0 0 
12 1.01781e-05 1.9904e-05 0 1.03862e-06 -5.59588e-07 0 0 0 0 
13 1.99769e-05 1.97511e-05 0 -1.34945e-07 -1.4515e-06 0 0 0 0 
14 3.03108e-05 2.03802e-05 0 1.81259e-06 2.21687e-06 0 0 0 0 
15 3.96886e-05 2.02838e-05 0 -1.8156e-06 1.65502e-06 0 0 0 0 
16 3.32363e-07 2.95436e-05 0 1.93808e-06 -2.6615e-06 0 0 0 0 
17 1.02356e-05 2.93567e-05 0 1.37385e-06 -3.75138e-06 0 0 0 0 
18 1.98301e-05 3.01743e-05 0 -9.90591e-07 1.01614e-06 0 0 0 0 
19 3.03773e-05 3.01589e-05 0 2.20011e-06 9.26503e-07 0 0 0 0 
20 4.02772e-05 3.02769e-05 0 1.61642e-06 1.61475e-06 0 0 0 0 