LAMMPS (11 May 2016)
# Big colloid particles and small LJ particles

units		si
atom_style	atomic
dimension	2

lattice		sq 10e-6 # lattice & latice constant
Lattice spacing in x,y,z = 1e-05 1e-05 1e-05
region		box block 0 5 0 5 -0.5 0.5
create_box	1 box
Created orthogonal box = (0 0 -5e-06) to (5e-05 5e-05 5e-06)
  1 by 1 by 1 MPI processor grid
create_atoms	1 box
Created 25 atoms

#set		group all type/fraction 2 0.96 23984

#set		type 1 mass 1e-9
#set		type 2 mass 1
mass 1 1e-9

velocity	all create 300 87287 loop geom

# multi neighbor and comm for efficiency

neighbor	5e-6 bin
#neigh_modify	delay 0
#comm_modify     mode multi

# colloid potential

pair_style	dlvo 2.5e-6# cutoff
pair_coeff	1 1  1.3e-20 2.7e-6 8.15e-12 104022291 0.0828
# hamaker radius psi debyeinv springk
dielectric 	80
pair_modify	shift yes

#fix		1 all npt temp 300 300 1 iso 0.002 0.002 10 #mtk no pchain 0 tchain 1
#fix		1 all nve
#fix     1 all langevin 300.00 3.00 1e-1 87287  # start_temp final_temp time_constant seed
fix     1 all nvt temp 300.00 3.00 1e-1  # start_temp final_temp time_constant
fix		2 all enforce2d

dump		1 all custom 1000 dump.dlvo.lammpstrj id x y z vx vy vz fx fy fz
#dump_modify 	1 scale no

#dump		2 all image 1000 image.*.jpg type type #		zoom 1.5 center d 0.5 0.5 0.5
#dump_modify	2 pad 5 adiam 1 5.0 adiam 2 1.5

#dump		3 all movie 1000 movie.mpg type type #		zoom 1.5 center d 0.5 0.5 0.5
#dump_modify	3 pad 5 adiam 1 5.0 adiam 2 1.5

thermo_style	custom step temp epair etotal press vol
thermo		10000

timestep	1e-5

run		1000000
Neighbor list info ...
  1 neighbor list requests
  update every 1 steps, delay 10 steps, check yes
  max neighbors/atom: 2000, page size: 100000
  master list distance cutoff = 1.29e-05
  ghost atom cutoff = 1.29e-05
  binsize = 6.45e-06 -> bins = 8 8 2
Memory usage per processor = 3.7282 Mbytes
Step Temp E_pair TotEng Press Volume 
       0          300            0 9.9406829e-20 3.9762732e-11      2.5e-09 
   10000    298.92785            0 9.9051566e-20 3.9620627e-11      2.5e-09 
   20000    288.01367            0 9.5435086e-20 3.8174034e-11      2.5e-09 
   30000    266.72962            0 8.8382486e-20 3.5352994e-11      2.5e-09 
   40000    277.96942 1.6355094e-24 9.2108498e-20 3.7583926e-11      2.5e-09 
   50000    328.19618 4.6434124e-22 1.0921415e-19 4.6252104e-11      2.5e-09 
   60000    319.06423 1.5150923e-21 1.0723897e-19 4.7200048e-11      2.5e-09 
   70000     212.5406 3.2555711e-21 7.3682195e-20 3.8173519e-11      2.5e-09 
   80000    197.11277 5.7079298e-21 7.1022449e-20 4.2147456e-11      2.5e-09 
   90000     316.9282 9.6658606e-21 1.1468195e-19 6.9570104e-11      2.5e-09 
  100000    309.62041 1.4497264e-20 1.1709187e-19 8.5636704e-11      2.5e-09 
  110000    252.30003 1.6203898e-20 9.9805052e-20 8.4601995e-11      2.5e-09 
  120000    236.40363 1.2653646e-20 9.0987428e-20 6.1571141e-11      2.5e-09 
  130000    263.75589 1.1340136e-20 9.8737258e-20 6.3489723e-11      2.5e-09 
  140000    355.44697 1.0679242e-20 1.2845876e-19 7.4218742e-11      2.5e-09 
  150000    270.53496 1.0504713e-20 1.0014812e-19 6.2431515e-11      2.5e-09 
  160000    196.92807 1.0599464e-20 7.5852782e-20 5.1562026e-11      2.5e-09 
  170000    226.49737 1.1049279e-20 8.6100564e-20 5.7056633e-11      2.5e-09 
  180000    281.84419 1.2353178e-20 1.0574397e-19 6.911408e-11      2.5e-09 
  190000    263.85517 1.4796555e-20 1.0222657e-19 7.6810385e-11      2.5e-09 
  200000    230.01467 1.4226377e-20 9.044314e-20 7.1396064e-11      2.5e-09 
  210000    237.41756 1.0747287e-20 8.9417044e-20 5.8957581e-11      2.5e-09 
  220000    242.28721 8.4424458e-21 8.8725791e-20 5.3986542e-11      2.5e-09 
  230000    228.28848 7.1392103e-21 8.278399e-20 5.0802393e-11      2.5e-09 
  240000    206.50467 6.4231467e-21 7.4849727e-20 4.6422599e-11      2.5e-09 
  250000    208.72346 5.9071504e-21 7.506894e-20 4.538438e-11      2.5e-09 
  260000     265.6039 5.7330551e-21 9.3742528e-20 5.1676738e-11      2.5e-09 
  270000    272.93536 6.0287152e-21 9.6467509e-20 5.4197212e-11      2.5e-09 
  280000     170.5717 6.8796653e-21 6.3399639e-20 4.1161851e-11      2.5e-09 
  290000    163.48166 7.889396e-21 6.206004e-20 4.2962917e-11      2.5e-09 
  300000     214.6438 9.2012929e-21 8.0324824e-20 5.4091266e-11      2.5e-09 
  310000    226.19018 1.0515052e-20 8.5464548e-20 5.8631447e-11      2.5e-09 
  320000    206.28729 1.150253e-20 7.985708e-20 5.7369341e-11      2.5e-09 
  330000    189.01635 1.1984902e-20 7.4616622e-20 5.6106751e-11      2.5e-09 
  340000    189.70905 1.1907717e-20 7.4768969e-20 5.5846601e-11      2.5e-09 
  350000    228.28955 1.1107294e-20 8.6752428e-20 5.8932442e-11      2.5e-09 
  360000    223.04919 1.0007855e-20 8.3916564e-20 5.496659e-11      2.5e-09 
  370000    158.06521 9.0118212e-21 6.1387694e-20 4.5103649e-11      2.5e-09 
  380000    150.42416 7.9741502e-21 5.7818112e-20 4.2253674e-11      2.5e-09 
  390000    230.15442 6.6676168e-21 8.2930688e-20 4.9855078e-11      2.5e-09 
  400000    256.44386 5.757394e-21 9.0731629e-20 5.2324891e-11      2.5e-09 
  410000    166.18171 5.5206612e-21 6.0585984e-20 3.9907578e-11      2.5e-09 
  420000    164.69699 5.8381644e-21 6.0411515e-20 3.9983742e-11      2.5e-09 
  430000    179.81469 7.4949729e-21 6.7077666e-20 4.7475961e-11      2.5e-09 
  440000    186.68198 1.100214e-20 7.2860352e-20 6.6158601e-11      2.5e-09 
  450000    176.48684 7.8941595e-21 6.637415e-20 4.644743e-11      2.5e-09 
  460000    124.67072 6.0389985e-21 4.7349402e-20 3.3689391e-11      2.5e-09 
  470000    123.55813 5.6921433e-21 4.6633884e-20 3.2906895e-11      2.5e-09 
  480000    203.71662 5.8453702e-21 7.3348113e-20 4.3534388e-11      2.5e-09 
  490000    194.23313 6.4128254e-21 7.0773157e-20 4.248814e-11      2.5e-09 
  500000    148.66224 7.6955305e-21 5.695567e-20 3.9453077e-11      2.5e-09 
  510000    131.77124 9.1585993e-21 5.2821802e-20 4.1139997e-11      2.5e-09 
  520000     148.2538 1.0756377e-20 5.9881176e-20 4.7293229e-11      2.5e-09 
  530000    214.28947 1.281914e-20 8.3825264e-20 6.2357237e-11      2.5e-09 
  540000    147.71631 1.7226725e-20 6.6173423e-20 7.7615036e-11      2.5e-09 
  550000    116.50459 1.3497904e-20 5.210241e-20 5.2747134e-11      2.5e-09 
  560000    136.55548 1.0146678e-20 5.539517e-20 4.2788556e-11      2.5e-09 
  570000    148.30481 8.8613643e-21 5.8003067e-20 4.0482516e-11      2.5e-09 
  580000    112.80131 8.5367578e-21 4.591416e-20 3.6061191e-11      2.5e-09 
  590000    82.376337 8.5826901e-21 3.5878591e-20 3.3114003e-11      2.5e-09 
  600000    114.46221 8.7765066e-21 4.6704257e-20 3.7149193e-11      2.5e-09 
  610000    148.93146 9.1341228e-21 5.848347e-20 4.2747139e-11      2.5e-09 
  620000    122.68337 9.5155384e-21 5.0167422e-20 4.0314019e-11      2.5e-09 
  630000    100.56109 9.5594661e-21 4.2880997e-20 3.8573215e-11      2.5e-09 
  640000     101.0558 9.5705643e-21 4.305602e-20 3.7964943e-11      2.5e-09 
  650000    148.92628 9.8615874e-21 5.9209218e-20 4.4717927e-11      2.5e-09 
  660000    139.31285 1.1386808e-20 5.754897e-20 4.7244873e-11      2.5e-09 
  670000    80.659894 1.5162105e-20 4.1889253e-20 5.7575783e-11      2.5e-09 
  680000     94.99364 1.3238908e-20 4.471563e-20 5.0342894e-11      2.5e-09 
  690000    120.57862 8.7392041e-21 4.8693665e-20 3.7810441e-11      2.5e-09 
  700000    84.087939 6.5455937e-21 3.4408645e-20 2.8253513e-11      2.5e-09 
  710000    70.129588 5.2666521e-21 2.8504519e-20 2.4799455e-11      2.5e-09 
  720000    85.190854 4.1944853e-21 3.2422994e-20 2.4980862e-11      2.5e-09 
  730000    95.549042 3.4434417e-21 3.5104199e-20 2.4385626e-11      2.5e-09 
  740000    76.933118 2.976694e-21 2.8468952e-20 2.1949194e-11      2.5e-09 
  750000    47.017318 2.7856107e-21 1.8365085e-20 1.8455483e-11      2.5e-09 
  760000    55.464235 2.8065595e-21 2.1184972e-20 2.1075704e-11      2.5e-09 
  770000     70.18793 2.8735316e-21 2.613073e-20  2.24115e-11      2.5e-09 
  780000    75.207631 3.0567712e-21 2.7977278e-20 2.1895259e-11      2.5e-09 
  790000    65.529391 3.4570333e-21 2.5170597e-20 2.1159692e-11      2.5e-09 
  800000    47.078504 3.9508701e-21 1.955062e-20 1.9374882e-11      2.5e-09 
  810000    42.425544 4.3790596e-21 1.8437022e-20  1.93796e-11      2.5e-09 
  820000    70.706053 4.9366728e-21 2.8365554e-20 2.4065676e-11      2.5e-09 
  830000    66.182491 6.0163591e-21 2.7946331e-20 2.6463046e-11      2.5e-09 
  840000    44.120981 7.4936797e-21 2.2113436e-20 2.6981837e-11      2.5e-09 
  850000    40.781925 8.5163055e-21 2.2029645e-20 3.0133505e-11      2.5e-09 
  860000    52.067833 7.9280604e-21 2.5181054e-20 2.9104333e-11      2.5e-09 
  870000    48.044774 6.7910224e-21 2.2710951e-20 2.5494957e-11      2.5e-09 
  880000    27.652277 6.1083349e-21 1.5271086e-20 2.2545425e-11      2.5e-09 
  890000    34.103997 5.6179792e-21 1.6918546e-20 2.1656492e-11      2.5e-09 
  900000    43.642493 5.1589191e-21 1.9620125e-20 2.1399766e-11      2.5e-09 
  910000    31.248784 4.7299798e-21 1.5084455e-20 1.8383832e-11      2.5e-09 
  920000    24.535546 4.3679261e-21 1.2497929e-20 1.6982005e-11      2.5e-09 
  930000    25.242727 4.0413103e-21 1.2405642e-20 1.5119912e-11      2.5e-09 
  940000     22.77463 3.7349067e-21 1.1281419e-20 1.4327255e-11      2.5e-09 
  950000    14.409179 3.4066668e-21 8.1812362e-21 1.2744688e-11      2.5e-09 
  960000      13.8318 3.0688323e-21 7.6520834e-21 1.2199304e-11      2.5e-09 
  970000    14.900481 2.6751385e-21 7.6125036e-21 1.181338e-11      2.5e-09 
  980000    11.541415 2.273536e-21 6.0978542e-21 1.0848294e-11      2.5e-09 
  990000    8.6499725 1.9130247e-21 4.7792459e-21 1.0012932e-11      2.5e-09 
 1000000    5.4149469 1.5989914e-21 3.3932671e-21 9.200942e-12      2.5e-09 
Loop time of 3.76348 on 1 procs for 1000000 steps with 25 atoms

99.6% CPU use with 1 MPI tasks x no OpenMP threads

MPI task timing breakdown:
Section |  min time  |  avg time  |  max time  |%varavg| %total
---------------------------------------------------------------
Pair    | 1.3417     | 1.3417     | 1.3417     |   0.0 | 35.65
Neigh   | 9.8705e-05 | 9.8705e-05 | 9.8705e-05 |   0.0 |  0.00
Comm    | 0.3794     | 0.3794     | 0.3794     |   0.0 | 10.08
Output  | 0.09801    | 0.09801    | 0.09801    |   0.0 |  2.60
Modify  | 1.6176     | 1.6176     | 1.6176     |   0.0 | 42.98
Other   |            | 0.3267     |            |       |  8.68

Nlocal:    25 ave 25 max 25 min
Histogram: 1 0 0 0 0 0 0 0 0 0
Nghost:    33 ave 33 max 33 min
Histogram: 1 0 0 0 0 0 0 0 0 0
Neighs:    54 ave 54 max 54 min
Histogram: 1 0 0 0 0 0 0 0 0 0

Total # of neighbors = 54
Ave neighs/atom = 2.16
Neighbor list builds = 14
Dangerous builds = 0
Total wall time: 0:00:03
